  27
   1   1
     7.488327932678796     0.000000000000000     0.000000000000000
     0.000000000000000     7.488327932678789    -0.000000000000000
     0.000000000000000    -0.000000000000000     7.488327932678795
   1   2
     0.064703834821857    -0.000000000000000     0.000000000000000
     0.000000000000000    -1.001794876253734    -1.049852724430070
     0.000000000000000    -1.049852724430070    -1.001794876253735
   1   3
     0.064703834821857    -0.000000000000000    -0.000000000000000
     0.000000000000000    -1.001794876253734    -1.049852724430069
     0.000000000000000    -1.049852724430070    -1.001794876253735
   1   4
    -1.001794876253734     0.000000000000000    -1.049852724430070
     0.000000000000000     0.064703834821857     0.000000000000000
    -1.049852724430070    -0.000000000000000    -1.001794876253735
   1   5
     0.006089974640563    -0.006296699051933     0.006296699051933
    -0.006296699051933     0.006089974640563     0.006296699051933
     0.006296699051933     0.006296699051933     0.006089974640563
   1   6
    -1.001794876253734     1.049852724430070    -0.000000000000000
     1.049852724430069    -1.001794876253734     0.000000000000000
    -0.000000000000000     0.000000000000000     0.064703834821857
   1   7
    -1.001794876253734     0.000000000000000    -1.049852724430070
     0.000000000000000     0.064703834821857     0.000000000000000
    -1.049852724430070    -0.000000000000000    -1.001794876253735
   1   8
    -1.001794876253734     1.049852724430070    -0.000000000000000
     1.049852724430069    -1.001794876253734     0.000000000000000
    -0.000000000000000     0.000000000000000     0.064703834821857
   1   9
     0.006089974640563    -0.006296699051933     0.006296699051933
    -0.006296699051933     0.006089974640563     0.006296699051933
     0.006296699051933     0.006296699051933     0.006089974640563
   1  10
    -1.001794876253735    -1.049852724430070     0.000000000000000
    -1.049852724430070    -1.001794876253734    -0.000000000000000
    -0.000000000000000    -0.000000000000000     0.064703834821857
   1  11
     0.006089974640563     0.006296699051933    -0.006296699051933
     0.006296699051933     0.006089974640563     0.006296699051933
    -0.006296699051933     0.006296699051933     0.006089974640563
   1  12
    -1.001794876253734    -0.000000000000000     1.049852724430069
    -0.000000000000000     0.064703834821857     0.000000000000000
     1.049852724430070     0.000000000000000    -1.001794876253735
   1  13
     0.006089974640563     0.006296699051933     0.006296699051933
     0.006296699051933     0.006089974640563    -0.006296699051933
     0.006296699051933    -0.006296699051933     0.006089974640563
   1  14
     0.006089974640563    -0.006296699051933    -0.006296699051933
    -0.006296699051933     0.006089974640563    -0.006296699051933
    -0.006296699051933    -0.006296699051933     0.006089974640563
   1  15
     0.118984142408176     0.000000000000000     0.000000000000000
     0.000000000000000    -0.004868085969300     0.000000000000000
     0.000000000000000     0.000000000000000    -0.004868085969300
   1  16
     0.064703834821857    -0.000000000000000     0.000000000000000
    -0.000000000000000    -1.001794876253734     1.049852724430069
     0.000000000000000     1.049852724430070    -1.001794876253735
   1  17
    -0.004868085969300     0.000000000000000     0.000000000000000
     0.000000000000000     0.118984142408176    -0.000000000000000
    -0.000000000000000    -0.000000000000000    -0.004868085969300
   1  18
    -0.004868085969300    -0.000000000000000    -0.000000000000000
     0.000000000000000    -0.004868085969300    -0.000000000000000
    -0.000000000000000    -0.000000000000000     0.118984142408176
   1  19
    -1.001794876253734    -1.049852724430070     0.000000000000000
    -1.049852724430070    -1.001794876253734    -0.000000000000000
    -0.000000000000000    -0.000000000000000     0.064703834821857
   1  20
    -1.001794876253734    -0.000000000000000     1.049852724430070
    -0.000000000000000     0.064703834821857     0.000000000000000
     1.049852724430070     0.000000000000000    -1.001794876253735
   1  21
     0.006089974640563     0.006296699051933    -0.006296699051933
     0.006296699051933     0.006089974640563     0.006296699051933
    -0.006296699051933     0.006296699051933     0.006089974640563
   1  22
     0.064703834821857    -0.000000000000000     0.000000000000000
    -0.000000000000000    -1.001794876253734     1.049852724430070
     0.000000000000000     1.049852724430070    -1.001794876253735
   1  23
    -0.004868085969300    -0.000000000000000    -0.000000000000000
    -0.000000000000000    -0.004868085969300    -0.000000000000000
    -0.000000000000000    -0.000000000000000     0.118984142408176
   1  24
    -0.004868085969300     0.000000000000000     0.000000000000000
     0.000000000000000     0.118984142408176    -0.000000000000000
    -0.000000000000000    -0.000000000000000    -0.004868085969300
   1  25
     0.006089974640563     0.006296699051933     0.006296699051933
     0.006296699051933     0.006089974640563    -0.006296699051933
     0.006296699051933    -0.006296699051933     0.006089974640563
   1  26
     0.118984142408176     0.000000000000000     0.000000000000000
     0.000000000000000    -0.004868085969300     0.000000000000000
     0.000000000000000     0.000000000000000    -0.004868085969300
   1  27
     0.006089974640563    -0.006296699051933    -0.006296699051933
    -0.006296699051933     0.006089974640563    -0.006296699051933
    -0.006296699051933    -0.006296699051933     0.006089974640563
   2   1
     0.064703834821857    -0.000000000000000    -0.000000000000000
    -0.000000000000000    -1.001794876253734    -1.049852724430070
    -0.000000000000000    -1.049852724430070    -1.001794876253735
   2   2
     7.488327932678795     0.000000000000000    -0.000000000000000
     0.000000000000000     7.488327932678789    -0.000000000000000
    -0.000000000000001     0.000000000000000     7.488327932678796
   2   3
     0.064703834821857    -0.000000000000000    -0.000000000000000
    -0.000000000000000    -1.001794876253734    -1.049852724430070
    -0.000000000000000    -1.049852724430070    -1.001794876253734
   2   4
    -1.001794876253735     1.049852724430070     0.000000000000000
     1.049852724430069    -1.001794876253734    -0.000000000000000
     0.000000000000000    -0.000000000000000     0.064703834821857
   2   5
    -1.001794876253735    -0.000000000000000    -1.049852724430070
    -0.000000000000000     0.064703834821857    -0.000000000000000
    -1.049852724430070    -0.000000000000000    -1.001794876253734
   2   6
     0.006089974640563    -0.006296699051933     0.006296699051933
    -0.006296699051933     0.006089974640563     0.006296699051933
     0.006296699051933     0.006296699051933     0.006089974640563
   2   7
     0.006089974640563    -0.006296699051933     0.006296699051933
    -0.006296699051933     0.006089974640563     0.006296699051933
     0.006296699051933     0.006296699051933     0.006089974640563
   2   8
    -1.001794876253735    -0.000000000000000    -1.049852724430070
    -0.000000000000000     0.064703834821857    -0.000000000000000
    -1.049852724430070    -0.000000000000000    -1.001794876253734
   2   9
    -1.001794876253735     1.049852724430070     0.000000000000000
     1.049852724430070    -1.001794876253734    -0.000000000000000
     0.000000000000000    -0.000000000000000     0.064703834821857
   2  10
    -1.001794876253735     0.000000000000000     1.049852724430070
     0.000000000000000     0.064703834821857    -0.000000000000000
     1.049852724430069    -0.000000000000000    -1.001794876253734
   2  11
    -1.001794876253735    -1.049852724430070     0.000000000000000
    -1.049852724430069    -1.001794876253734     0.000000000000000
     0.000000000000000     0.000000000000000     0.064703834821857
   2  12
     0.006089974640563     0.006296699051933    -0.006296699051933
     0.006296699051933     0.006089974640563     0.006296699051933
    -0.006296699051933     0.006296699051933     0.006089974640563
   2  13
     0.118984142408176     0.000000000000000    -0.000000000000000
     0.000000000000000    -0.004868085969300     0.000000000000000
    -0.000000000000000     0.000000000000000    -0.004868085969300
   2  14
     0.006089974640563     0.006296699051933     0.006296699051933
     0.006296699051933     0.006089974640563    -0.006296699051933
     0.006296699051933    -0.006296699051933     0.006089974640563
   2  15
     0.006089974640563    -0.006296699051933    -0.006296699051933
    -0.006296699051933     0.006089974640563    -0.006296699051933
    -0.006296699051933    -0.006296699051933     0.006089974640563
   2  16
    -0.004868085969300    -0.000000000000000     0.000000000000000
    -0.000000000000000    -0.004868085969300     0.000000000000000
     0.000000000000000     0.000000000000000     0.118984142408176
   2  17
     0.064703834821857     0.000000000000000    -0.000000000000000
     0.000000000000000    -1.001794876253734     1.049852724430069
    -0.000000000000000     1.049852724430070    -1.001794876253734
   2  18
    -0.004868085969300     0.000000000000000     0.000000000000000
     0.000000000000000     0.118984142408176    -0.000000000000000
     0.000000000000000    -0.000000000000000    -0.004868085969300
   2  19
     0.006089974640563     0.006296699051933    -0.006296699051933
     0.006296699051933     0.006089974640563     0.006296699051933
    -0.006296699051933     0.006296699051933     0.006089974640563
   2  20
    -1.001794876253735    -1.049852724430070     0.000000000000000
    -1.049852724430070    -1.001794876253734     0.000000000000000
     0.000000000000000     0.000000000000000     0.064703834821857
   2  21
    -1.001794876253735     0.000000000000000     1.049852724430070
     0.000000000000000     0.064703834821857    -0.000000000000000
     1.049852724430070    -0.000000000000000    -1.001794876253734
   2  22
    -0.004868085969300     0.000000000000000     0.000000000000000
     0.000000000000000     0.118984142408176    -0.000000000000000
     0.000000000000000    -0.000000000000000    -0.004868085969300
   2  23
     0.064703834821857     0.000000000000000    -0.000000000000000
     0.000000000000000    -1.001794876253734     1.049852724430069
    -0.000000000000000     1.049852724430070    -1.001794876253734
   2  24
    -0.004868085969300    -0.000000000000000     0.000000000000000
    -0.000000000000000    -0.004868085969300     0.000000000000000
     0.000000000000000     0.000000000000000     0.118984142408176
   2  25
     0.006089974640563    -0.006296699051933    -0.006296699051933
    -0.006296699051933     0.006089974640563    -0.006296699051933
    -0.006296699051933    -0.006296699051933     0.006089974640563
   2  26
     0.006089974640563     0.006296699051933     0.006296699051933
     0.006296699051933     0.006089974640563    -0.006296699051933
     0.006296699051933    -0.006296699051933     0.006089974640563
   2  27
     0.118984142408176     0.000000000000000    -0.000000000000000
     0.000000000000000    -0.004868085969300     0.000000000000000
    -0.000000000000000     0.000000000000000    -0.004868085969300
   3   1
     0.064703834821857    -0.000000000000000    -0.000000000000000
    -0.000000000000000    -1.001794876253734    -1.049852724430070
    -0.000000000000000    -1.049852724430070    -1.001794876253735
   3   2
     0.064703834821857    -0.000000000000000    -0.000000000000000
    -0.000000000000000    -1.001794876253734    -1.049852724430070
    -0.000000000000000    -1.049852724430070    -1.001794876253734
   3   3
     7.488327932678795     0.000000000000002    -0.000000000000001
     0.000000000000002     7.488327932678789     0.000000000000000
    -0.000000000000001     0.000000000000000     7.488327932678796
   3   4
     0.006089974640563    -0.006296699051933     0.006296699051933
    -0.006296699051933     0.006089974640563     0.006296699051933
     0.006296699051933     0.006296699051933     0.006089974640563
   3   5
    -1.001794876253734     1.049852724430070     0.000000000000000
     1.049852724430069    -1.001794876253734    -0.000000000000000
     0.000000000000000    -0.000000000000000     0.064703834821857
   3   6
    -1.001794876253735    -0.000000000000000    -1.049852724430070
    -0.000000000000000     0.064703834821857    -0.000000000000000
    -1.049852724430069    -0.000000000000000    -1.001794876253734
   3   7
    -1.001794876253734     1.049852724430070     0.000000000000000
     1.049852724430070    -1.001794876253734    -0.000000000000000
     0.000000000000000    -0.000000000000000     0.064703834821857
   3   8
     0.006089974640563    -0.006296699051933     0.006296699051933
    -0.006296699051933     0.006089974640563     0.006296699051933
     0.006296699051933     0.006296699051933     0.006089974640563
   3   9
    -1.001794876253735    -0.000000000000000    -1.049852724430070
    -0.000000000000000     0.064703834821857    -0.000000000000000
    -1.049852724430070    -0.000000000000000    -1.001794876253734
   3  10
     0.006089974640563     0.006296699051933    -0.006296699051933
     0.006296699051933     0.006089974640563     0.006296699051933
    -0.006296699051933     0.006296699051933     0.006089974640563
   3  11
    -1.001794876253735    -0.000000000000000     1.049852724430070
    -0.000000000000000     0.064703834821857     0.000000000000000
     1.049852724430070     0.000000000000000    -1.001794876253735
   3  12
    -1.001794876253735    -1.049852724430070     0.000000000000000
    -1.049852724430069    -1.001794876253734     0.000000000000000
     0.000000000000000     0.000000000000000     0.064703834821857
   3  13
     0.006089974640563    -0.006296699051933    -0.006296699051933
    -0.006296699051933     0.006089974640563    -0.006296699051933
    -0.006296699051933    -0.006296699051933     0.006089974640563
   3  14
     0.118984142408176     0.000000000000000    -0.000000000000000
     0.000000000000000    -0.004868085969300     0.000000000000000
    -0.000000000000000    -0.000000000000000    -0.004868085969300
   3  15
     0.006089974640563     0.006296699051933     0.006296699051933
     0.006296699051933     0.006089974640563    -0.006296699051933
     0.006296699051933    -0.006296699051933     0.006089974640563
   3  16
    -0.004868085969300     0.000000000000000     0.000000000000000
     0.000000000000000     0.118984142408176    -0.000000000000000
     0.000000000000000    -0.000000000000000    -0.004868085969300
   3  17
    -0.004868085969300    -0.000000000000000    -0.000000000000000
    -0.000000000000000    -0.004868085969300     0.000000000000000
     0.000000000000000     0.000000000000000     0.118984142408176
   3  18
     0.064703834821857    -0.000000000000000     0.000000000000000
    -0.000000000000000    -1.001794876253734     1.049852724430069
     0.000000000000000     1.049852724430070    -1.001794876253734
   3  19
    -1.001794876253735    -0.000000000000000     1.049852724430070
    -0.000000000000000     0.064703834821857     0.000000000000000
     1.049852724430070     0.000000000000000    -1.001794876253735
   3  20
     0.006089974640563     0.006296699051933    -0.006296699051933
     0.006296699051933     0.006089974640563     0.006296699051933
    -0.006296699051933     0.006296699051933     0.006089974640563
   3  21
    -1.001794876253735    -1.049852724430070     0.000000000000000
    -1.049852724430070    -1.001794876253734     0.000000000000000
     0.000000000000000     0.000000000000000     0.064703834821857
   3  22
    -0.004868085969300    -0.000000000000000    -0.000000000000000
    -0.000000000000000    -0.004868085969300     0.000000000000000
     0.000000000000000     0.000000000000000     0.118984142408176
   3  23
    -0.004868085969300     0.000000000000000     0.000000000000000
     0.000000000000000     0.118984142408176    -0.000000000000000
     0.000000000000000    -0.000000000000000    -0.004868085969300
   3  24
     0.064703834821857    -0.000000000000000     0.000000000000000
    -0.000000000000000    -1.001794876253734     1.049852724430069
     0.000000000000000     1.049852724430070    -1.001794876253734
   3  25
     0.118984142408176     0.000000000000000    -0.000000000000000
     0.000000000000000    -0.004868085969300    -0.000000000000000
    -0.000000000000000    -0.000000000000000    -0.004868085969300
   3  26
     0.006089974640563    -0.006296699051933    -0.006296699051933
    -0.006296699051933     0.006089974640563    -0.006296699051933
    -0.006296699051933    -0.006296699051933     0.006089974640563
   3  27
     0.006089974640563     0.006296699051933     0.006296699051933
     0.006296699051933     0.006089974640563    -0.006296699051933
     0.006296699051933    -0.006296699051933     0.006089974640563
   4   1
    -1.001794876253735     0.000000000000000    -1.049852724430070
     0.000000000000000     0.064703834821857     0.000000000000000
    -1.049852724430069     0.000000000000000    -1.001794876253734
   4   2
    -1.001794876253735     1.049852724430070    -0.000000000000000
     1.049852724430069    -1.001794876253734     0.000000000000000
    -0.000000000000000     0.000000000000000     0.064703834821857
   4   3
     0.006089974640563    -0.006296699051933     0.006296699051933
    -0.006296699051933     0.006089974640563     0.006296699051933
     0.006296699051933     0.006296699051933     0.006089974640563
   4   4
     7.488327932678795     0.000000000000000    -0.000000000000001
     0.000000000000000     7.488327932678789    -0.000000000000001
    -0.000000000000001    -0.000000000000001     7.488327932678796
   4   5
     0.064703834821857     0.000000000000000     0.000000000000000
     0.000000000000000    -1.001794876253734    -1.049852724430069
    -0.000000000000000    -1.049852724430070    -1.001794876253734
   4   6
     0.064703834821857     0.000000000000000     0.000000000000000
     0.000000000000000    -1.001794876253734    -1.049852724430069
    -0.000000000000000    -1.049852724430070    -1.001794876253734
   4   7
    -1.001794876253735     0.000000000000000    -1.049852724430070
     0.000000000000000     0.064703834821857     0.000000000000000
    -1.049852724430070     0.000000000000000    -1.001794876253734
   4   8
     0.006089974640563    -0.006296699051933     0.006296699051933
    -0.006296699051933     0.006089974640563     0.006296699051933
     0.006296699051933     0.006296699051933     0.006089974640563
   4   9
    -1.001794876253735     1.049852724430070    -0.000000000000000
     1.049852724430070    -1.001794876253734     0.000000000000000
    -0.000000000000000     0.000000000000000     0.064703834821857
   4  10
     0.064703834821857    -0.000000000000000     0.000000000000000
    -0.000000000000000    -1.001794876253734     1.049852724430070
     0.000000000000000     1.049852724430070    -1.001794876253735
   4  11
    -0.004868085969300     0.000000000000000     0.000000000000000
     0.000000000000000     0.118984142408176    -0.000000000000000
     0.000000000000000    -0.000000000000000    -0.004868085969300
   4  12
    -0.004868085969300    -0.000000000000000    -0.000000000000000
    -0.000000000000000    -0.004868085969300    -0.000000000000000
    -0.000000000000000    -0.000000000000000     0.118984142408176
   4  13
    -1.001794876253735    -1.049852724430070     0.000000000000000
    -1.049852724430070    -1.001794876253734     0.000000000000000
     0.000000000000000     0.000000000000000     0.064703834821857
   4  14
     0.006089974640563     0.006296699051933    -0.006296699051933
     0.006296699051933     0.006089974640563     0.006296699051933
    -0.006296699051933     0.006296699051933     0.006089974640563
   4  15
    -1.001794876253735    -0.000000000000000     1.049852724430070
    -0.000000000000000     0.064703834821857     0.000000000000000
     1.049852724430070     0.000000000000000    -1.001794876253734
   4  16
     0.006089974640563     0.006296699051933     0.006296699051933
     0.006296699051933     0.006089974640563    -0.006296699051933
     0.006296699051933    -0.006296699051933     0.006089974640563
   4  17
     0.006089974640563    -0.006296699051933    -0.006296699051933
    -0.006296699051933     0.006089974640563    -0.006296699051933
    -0.006296699051933    -0.006296699051933     0.006089974640563
   4  18
     0.118984142408176     0.000000000000000    -0.000000000000000
     0.000000000000000    -0.004868085969300     0.000000000000000
    -0.000000000000000     0.000000000000000    -0.004868085969300
   4  19
     0.006089974640563     0.006296699051933     0.006296699051933
     0.006296699051933     0.006089974640563    -0.006296699051933
     0.006296699051933    -0.006296699051933     0.006089974640563
   4  20
     0.118984142408176     0.000000000000000    -0.000000000000000
     0.000000000000000    -0.004868085969300     0.000000000000000
    -0.000000000000000     0.000000000000000    -0.004868085969300
   4  21
     0.006089974640563    -0.006296699051933    -0.006296699051933
    -0.006296699051933     0.006089974640563    -0.006296699051933
    -0.006296699051933    -0.006296699051933     0.006089974640563
   4  22
    -1.001794876253735    -1.049852724430070     0.000000000000000
    -1.049852724430069    -1.001794876253734     0.000000000000000
     0.000000000000000     0.000000000000000     0.064703834821857
   4  23
    -1.001794876253735    -0.000000000000000     1.049852724430070
    -0.000000000000000     0.064703834821857     0.000000000000000
     1.049852724430070     0.000000000000000    -1.001794876253734
   4  24
     0.006089974640563     0.006296699051933    -0.006296699051933
     0.006296699051933     0.006089974640563     0.006296699051933
    -0.006296699051933     0.006296699051933     0.006089974640563
   4  25
     0.064703834821857    -0.000000000000000     0.000000000000000
    -0.000000000000000    -1.001794876253734     1.049852724430070
     0.000000000000000     1.049852724430070    -1.001794876253734
   4  26
    -0.004868085969300    -0.000000000000000    -0.000000000000000
    -0.000000000000000    -0.004868085969300    -0.000000000000000
    -0.000000000000000    -0.000000000000000     0.118984142408176
   4  27
    -0.004868085969300     0.000000000000000     0.000000000000000
     0.000000000000000     0.118984142408176    -0.000000000000000
     0.000000000000000    -0.000000000000000    -0.004868085969300
   5   1
     0.006089974640563    -0.006296699051933     0.006296699051933
    -0.006296699051933     0.006089974640563     0.006296699051933
     0.006296699051933     0.006296699051933     0.006089974640563
   5   2
    -1.001794876253734    -0.000000000000000    -1.049852724430070
    -0.000000000000000     0.064703834821857    -0.000000000000000
    -1.049852724430070    -0.000000000000000    -1.001794876253734
   5   3
    -1.001794876253734     1.049852724430070     0.000000000000000
     1.049852724430070    -1.001794876253734    -0.000000000000000
    -0.000000000000000     0.000000000000000     0.064703834821857
   5   4
     0.064703834821857    -0.000000000000000    -0.000000000000000
    -0.000000000000000    -1.001794876253734    -1.049852724430069
    -0.000000000000000    -1.049852724430070    -1.001794876253734
   5   5
     7.488327932678796     0.000000000000000    -0.000000000000000
     0.000000000000000     7.488327932678789     0.000000000000000
    -0.000000000000000     0.000000000000000     7.488327932678795
   5   6
     0.064703834821857    -0.000000000000000    -0.000000000000000
    -0.000000000000000    -1.001794876253734    -1.049852724430070
    -0.000000000000000    -1.049852724430070    -1.001794876253734
   5   7
    -1.001794876253735     1.049852724430070     0.000000000000000
     1.049852724430070    -1.001794876253734    -0.000000000000000
    -0.000000000000000     0.000000000000000     0.064703834821857
   5   8
    -1.001794876253734    -0.000000000000000    -1.049852724430070
    -0.000000000000000     0.064703834821857    -0.000000000000000
    -1.049852724430070    -0.000000000000000    -1.001794876253735
   5   9
     0.006089974640563    -0.006296699051933     0.006296699051933
    -0.006296699051933     0.006089974640563     0.006296699051933
     0.006296699051933     0.006296699051933     0.006089974640563
   5  10
    -0.004868085969300    -0.000000000000000     0.000000000000000
    -0.000000000000000    -0.004868085969300     0.000000000000000
     0.000000000000000     0.000000000000000     0.118984142408176
   5  11
     0.064703834821857     0.000000000000000    -0.000000000000000
     0.000000000000000    -1.001794876253734     1.049852724430069
    -0.000000000000000     1.049852724430070    -1.001794876253735
   5  12
    -0.004868085969300     0.000000000000000     0.000000000000000
     0.000000000000000     0.118984142408176    -0.000000000000000
    -0.000000000000000    -0.000000000000000    -0.004868085969300
   5  13
    -1.001794876253734     0.000000000000000     1.049852724430069
     0.000000000000000     0.064703834821857    -0.000000000000000
     1.049852724430070    -0.000000000000000    -1.001794876253735
   5  14
    -1.001794876253734    -1.049852724430070     0.000000000000000
    -1.049852724430069    -1.001794876253734     0.000000000000000
     0.000000000000000     0.000000000000000     0.064703834821857
   5  15
     0.006089974640563     0.006296699051933    -0.006296699051933
     0.006296699051933     0.006089974640563     0.006296699051933
    -0.006296699051933     0.006296699051933     0.006089974640563
   5  16
     0.118984142408176     0.000000000000000    -0.000000000000000
     0.000000000000000    -0.004868085969300     0.000000000000000
    -0.000000000000000     0.000000000000000    -0.004868085969300
   5  17
     0.006089974640563     0.006296699051933     0.006296699051933
     0.006296699051933     0.006089974640563    -0.006296699051933
     0.006296699051933    -0.006296699051933     0.006089974640563
   5  18
     0.006089974640563    -0.006296699051933    -0.006296699051933
    -0.006296699051933     0.006089974640563    -0.006296699051933
    -0.006296699051933    -0.006296699051933     0.006089974640563
   5  19
     0.006089974640563    -0.006296699051933    -0.006296699051933
    -0.006296699051933     0.006089974640563    -0.006296699051933
    -0.006296699051933    -0.006296699051933     0.006089974640563
   5  20
     0.006089974640563     0.006296699051933     0.006296699051933
     0.006296699051933     0.006089974640563    -0.006296699051933
     0.006296699051933    -0.006296699051933     0.006089974640563
   5  21
     0.118984142408176     0.000000000000000    -0.000000000000000
     0.000000000000000    -0.004868085969300     0.000000000000000
    -0.000000000000000     0.000000000000000    -0.004868085969300
   5  22
     0.006089974640563     0.006296699051933    -0.006296699051933
     0.006296699051933     0.006089974640563     0.006296699051933
    -0.006296699051933     0.006296699051933     0.006089974640563
   5  23
    -1.001794876253734    -1.049852724430070     0.000000000000000
    -1.049852724430069    -1.001794876253734     0.000000000000000
     0.000000000000000     0.000000000000000     0.064703834821857
   5  24
    -1.001794876253734     0.000000000000000     1.049852724430070
     0.000000000000000     0.064703834821857    -0.000000000000000
     1.049852724430070    -0.000000000000000    -1.001794876253735
   5  25
    -0.004868085969300     0.000000000000000     0.000000000000000
     0.000000000000000     0.118984142408176    -0.000000000000000
    -0.000000000000000    -0.000000000000000    -0.004868085969300
   5  26
     0.064703834821857     0.000000000000000     0.000000000000000
     0.000000000000000    -1.001794876253734     1.049852724430070
    -0.000000000000000     1.049852724430070    -1.001794876253735
   5  27
    -0.004868085969300    -0.000000000000000     0.000000000000000
    -0.000000000000000    -0.004868085969300     0.000000000000000
     0.000000000000000     0.000000000000000     0.118984142408176
   6   1
    -1.001794876253734     1.049852724430070    -0.000000000000000
     1.049852724430070    -1.001794876253735     0.000000000000000
     0.000000000000000    -0.000000000000000     0.064703834821857
   6   2
     0.006089974640563    -0.006296699051933     0.006296699051933
    -0.006296699051933     0.006089974640563     0.006296699051933
     0.006296699051933     0.006296699051933     0.006089974640563
   6   3
    -1.001794876253734    -0.000000000000000    -1.049852724430069
    -0.000000000000000     0.064703834821857    -0.000000000000000
    -1.049852724430070    -0.000000000000000    -1.001794876253734
   6   4
     0.064703834821857    -0.000000000000000    -0.000000000000000
    -0.000000000000000    -1.001794876253734    -1.049852724430070
    -0.000000000000000    -1.049852724430070    -1.001794876253735
   6   5
     0.064703834821857    -0.000000000000000    -0.000000000000000
    -0.000000000000000    -1.001794876253734    -1.049852724430070
    -0.000000000000000    -1.049852724430070    -1.001794876253734
   6   6
     7.488327932678789     0.000000000000000     0.000000000000000
     0.000000000000000     7.488327932678796    -0.000000000000000
     0.000000000000000    -0.000000000000000     7.488327932678795
   6   7
     0.006089974640563    -0.006296699051933     0.006296699051933
    -0.006296699051933     0.006089974640563     0.006296699051933
     0.006296699051933     0.006296699051933     0.006089974640563
   6   8
    -1.001794876253734     1.049852724430070    -0.000000000000000
     1.049852724430070    -1.001794876253734     0.000000000000000